3
energy: -76.4684885136930035
O  -0.0007809143160200  0.3969563993601200  0.0000000000000000
H  -0.7671274283801700  -0.1999882198486500  0.0000000000000000
H  0.7679083426961900  -0.1969681795114700  0.0000000000000000
