14
energy: -158.5047254379879860
C  1.9543949951702300  0.1066957079000400  0.1775875249139100
C  0.4882751879667100  0.5453039742252200  0.2277970663069400
C  -0.4882287405492300  -0.5452110216957901  -0.2281787312959500
C  -1.9543910949774299  -0.1067726259116600  -0.1772934340389700
H  2.2499857554831100  -0.1758360459389800  -0.8445376818148200
H  2.6285568228203302  0.9095199005446900  0.5096167887711700
H  2.1305732780439999  -0.7660158334354400  0.8251181873099500
H  0.3484260931082300  1.4411742720395899  -0.4016176143351700
H  0.2297988124954200  0.8546292299119000  1.2553444804038401
H  -0.2301753030818900  -0.8541267816543600  -1.2559543749457500
H  -0.3480843754759300  -1.4412851333271901  0.4008742289139700
H  -2.1311096320036498  0.7656513725151000  -0.8250616913889099
H  -2.6286360949013798  -0.9098232985523900  -0.5086067693224000
H  -2.2493857040985001  0.1760962833792700  0.8449120205221400
